LAMMPS data file. CGCMM style. atom_style full generated by VMD/TopoTools v1.7 on Tue Jan 29 15:44:09 AEDT 2019
 30 atoms
 29 bonds
 48 angles
 61 dihedrals
 5 impropers
 14 atom types
 15 bond types
 24 angle types
 26 dihedral types
 3 improper types
-9.0 3.0 xlo xhi 
-3.0 9.0 ylo yhi 
-10.0 1.0 zlo zhi 

Pair Coeffs 

1 0.0659 3.5 # C1 
2 0.0659 3.5 # C2 
3 0.0659 3.5 # C3 
4 0.0659 3.5 # C4 
5 0.0699 3.55 # C5 
6 0.0699 3.55 # C6 
7 0.0659 3.3 # C7 
8 0.02998 2.5 # H1 
9 0.02998 2.5 # H2 
10 0.02998 2.42 # H3 
11 0.02998 2.42 # H4 
12 0.1699 3.25 # N1 
13 0.1699 3.2 # N2 
14 0.1699 3.25 # N3 

Bond Coeffs 

1 267.746 1.529 # C1-C2 
2 339.758 1.09 # C1-H1 
3 336.773 1.466 # C1-N1 
4 267.746 1.529 # C2-C3 
5 339.758 1.09 # C2-H2 
6 267.746 1.529 # C3-C4 
7 339.758 1.09 # C3-H2 
8 339.758 1.09 # C4-H2 
9 339.758 1.08 # C5-H4 
10 476.736 1.315 # C5-N1 
11 519.729 1.341 # C6-C6 
12 339.758 1.08 # C6-H3 
13 426.818 1.378 # C6-N1 
14 649.565 1.157 # C7-N2 
15 502.293 1.31 # C7-N3 

Angle Coeffs 

1 58.314 112.7 # C1-C2-C3 
2 37.475 110.7 # C1-C2-H2 
3 69.958 126.4 # C1-N1-C5 
4 69.958 125.6 # C1-N1-C6 
5 37.475 110.7 # C2-C1-H1 
6 58.314 112.7 # C2-C1-N1 
7 58.314 112.7 # C2-C3-C4 
8 37.475 110.7 # C2-C3-H2 
9 37.475 110.7 # C3-C2-H2 
10 37.475 110.7 # C3-C4-H2 
11 37.475 110.7 # C4-C3-H2 
12 69.958 108.0 # C5-N1-C6 
13 34.979 130.9 # C6-C6-H3 
14 69.958 107.1 # C6-C6-N1 
15 43.231 118.5 # C7-N3-C7 
16 31.898 107.8 # H1-C1-H1 
17 37.475 110.7 # H1-C1-N1 
18 31.898 107.8 # H2-C2-H2 
19 31.898 107.8 # H2-C3-H2 
20 31.898 107.8 # H2-C4-H2 
21 34.979 122.0 # H3-C6-N1 
22 34.979 125.1 # H4-C5-N1 
23 69.958 109.8 # N1-C5-N1 
24 50.755 175.2 # N2-C7-N3 

Dihedral Coeffs 

1 1.299 -0.05 0.199 0 # C1-C2-C3-C4 
2 0 0 0.3 0 # C1-C2-C3-H2 
3 -1.259 0 0 0 # C2-C1-N1-C5 
4 -1.709 1.458 0.19 0 # C2-C1-N1-C6 
5 0 0 0.3 0 # C2-C3-C4-H2 
6 0 3 0 0 # C6-C6-N1-C1 
7 0 3 0 0 # C6-C6-N1-C5 
8 0 0 0.3 0 # H1-C1-C2-C3 
9 0 0 0.3 0 # H1-C1-C2-H2 
10 0 0 0 0 # H1-C1-N1-C5 
11 0 0 0.124 0 # H1-C1-N1-C6 
12 0 0 0.3 0 # H2-C2-C3-C4 
13 0 0 0.3 0 # H2-C2-C3-H2 
14 0 0 0.3 0 # H2-C3-C4-H2 
15 0 10.743 0 0 # H3-C6-C6-H3 
16 0 10.743 0 0 # H3-C6-C6-N1 
17 0 3 0 0 # H3-C6-N1-C1 
18 0 3 0 0 # H3-C6-N1-C5 
19 0 4.648 0 0 # H4-C5-N1-C1 
20 0 4.648 0 0 # H4-C5-N1-C6 
21 -1.786 0.756 -0.287 0 # N1-C1-C2-C3 
22 0 0 0.088 0 # N1-C1-C2-H2 
23 0 4.648 0 0 # N1-C5-N1-C1 
24 0 4.648 0 0 # N1-C5-N1-C6 
25 0 10.743 0 0 # N1-C6-C6-N1 
26 0.974 0 0 0 # N2-C7-N3-C7 

Improper Coeffs 

1 2 -1 2 # C1-C5-N1-C6 
2 2.199 -1 2 # C6-H3-C6-N1 
3 2.199 -1 2 # H4-N1-C5-N1 

 Masses

 1 12.010700 # C1
 2 12.010700 # C2
 3 12.010700 # C3
 4 12.010700 # C4
 5 12.010700 # C5
 6 12.010700 # C6
 7 12.010700 # C7
 8 1.007940 # H1
 9 1.007940 # H2
 10 1.007940 # H3
 11 1.007940 # H4
 12 14.006700 # N1
 13 14.006700 # N2
 14 14.006700 # N3

 Atoms # full

1 1 9 0.06 -7.295324 2.111535 -4.426720 # H2 
2 1 9 0.06 -6.367274 2.005051 -2.921547 # H2 
3 1 9 0.06 -7.412745 3.398260 -3.222662 # H2 
4 1 4 -0.18 -6.733200 2.685730 -3.690230 # C4 
5 1 9 0.06 -4.957279 3.909000 -3.582647 # H2 
6 1 9 0.06 -5.889742 4.159954 -5.048196 # H2 
7 1 3 -0.12 -5.537570 3.399100 -4.351650 # C3 
8 1 9 0.06 -5.176974 1.929650 -5.917157 # H2 
9 1 9 0.06 -4.360199 1.591981 -4.393103 # H2 
10 1 2 0.01 -4.639110 2.385790 -5.086050 # C2 
11 1 8 0.13 -2.727728 3.412487 -4.761297 # H1 
12 1 8 0.13 -3.575765 3.946272 -6.326745 # H1 
13 1 1 -0.17 -3.277720 3.136350 -5.660940 # C1 
14 1 12 0.15 -2.510130 2.074760 -6.351390 # N1 
15 1 6 -0.13 -1.868140 0.558780 -7.863010 # C6 
16 1 10 0.21 -1.747325 -0.115385 -8.698058 # H3 
17 1 12 0.15 -0.966220 0.576430 -6.806450 # N1 
18 1 5 -0.11 -1.360890 1.505340 -5.893250 # C5 
19 1 11 0.21 -0.854928 1.747715 -4.970397 # H4 
20 1 6 -0.13 -2.850070 1.502320 -7.570520 # C6 
21 1 10 0.21 -3.727736 1.795702 -8.127323 # H3 
22 1 1 -0.17 0.237150 -0.282600 -6.713210 # C1 
23 1 8 0.13 0.032363 -1.175910 -7.303260 # H1 
24 1 8 0.13 0.381510 -0.562790 -5.669776 # H1 
25 1 8 0.13 1.101927 0.256085 -7.100610 # H1 
26 1 13 -0.76 -1.413410 2.935900 -0.649290 # N2 
27 1 7 0.64 -1.480140 4.056430 -1.113750 # C7 
28 1 14 -0.76 -1.592450 5.242450 -1.738590 # N3 
29 1 7 0.64 -2.113710 6.210190 -0.959440 # C7 
30 1 13 -0.76 -2.615460 7.122790 -0.334750 # N2 

 Bonds

1 8 1 4
2 8 2 4
3 8 3 4
4 6 4 7
5 7 5 7
6 7 6 7
7 4 7 10
8 5 8 10
9 5 9 10
10 1 10 13
11 2 11 13
12 2 12 13
13 3 13 14
14 13 14 20
15 10 14 18
16 12 15 16
17 13 15 17
18 11 15 20
19 3 17 22
20 10 17 18
21 9 18 19
22 12 20 21
23 2 22 23
24 2 22 25
25 2 22 24
26 14 26 27
27 15 27 28
28 15 28 29
29 14 29 30

 Angles

1 20 1 4 2
2 20 1 4 3
3 10 1 4 7
4 20 2 4 3
5 10 2 4 7
6 10 3 4 7
7 11 4 7 5
8 11 4 7 6
9 7 4 7 10
10 19 5 7 6
11 8 5 7 10
12 8 6 7 10
13 9 7 10 8
14 9 7 10 9
15 1 7 10 13
16 18 8 10 9
17 2 8 10 13
18 2 9 10 13
19 5 10 13 11
20 5 10 13 12
21 6 10 13 14
22 16 11 13 12
23 17 11 13 14
24 17 12 13 14
25 4 13 14 20
26 3 13 14 18
27 12 18 14 20
28 21 16 15 17
29 13 16 15 20
30 14 17 15 20
31 4 15 17 22
32 12 15 17 18
33 3 18 17 22
34 23 14 18 17
35 22 14 18 19
36 22 17 18 19
37 14 14 20 15
38 21 14 20 21
39 13 15 20 21
40 17 17 22 23
41 17 17 22 25
42 17 17 22 24
43 16 23 22 25
44 16 23 22 24
45 16 24 22 25
46 24 26 27 28
47 15 27 28 29
48 24 28 29 30

 Dihedrals

1 14 1 4 7 5
2 14 1 4 7 6
3 5 1 4 7 10
4 14 2 4 7 5
5 14 2 4 7 6
6 5 2 4 7 10
7 14 3 4 7 5
8 14 3 4 7 6
9 5 3 4 7 10
10 12 4 7 10 8
11 12 4 7 10 9
12 1 4 7 10 13
13 13 5 7 10 8
14 13 5 7 10 9
15 2 5 7 10 13
16 13 6 7 10 8
17 13 6 7 10 9
18 2 6 7 10 13
19 8 7 10 13 11
20 8 7 10 13 12
21 21 7 10 13 14
22 9 8 10 13 11
23 9 8 10 13 12
24 22 8 10 13 14
25 9 9 10 13 11
26 9 9 10 13 12
27 22 9 10 13 14
28 4 10 13 14 20
29 3 10 13 14 18
30 11 11 13 14 20
31 10 11 13 14 18
32 11 12 13 14 20
33 10 12 13 14 18
34 6 13 14 20 15
35 17 13 14 20 21
36 7 18 14 20 15
37 18 18 14 20 21
38 23 13 14 18 17
39 19 13 14 18 19
40 24 20 14 18 17
41 20 20 14 18 19
42 17 16 15 17 22
43 18 16 15 17 18
44 6 20 15 17 22
45 7 20 15 17 18
46 16 16 15 20 14
47 15 16 15 20 21
48 25 17 15 20 14
49 16 17 15 20 21
50 11 15 17 22 23
51 11 15 17 22 25
52 11 15 17 22 24
53 10 18 17 22 23
54 10 18 17 22 25
55 10 18 17 22 24
56 24 15 17 18 14
57 20 15 17 18 19
58 23 22 17 18 14
59 19 22 17 18 19
60 26 26 27 28 29
61 26 27 28 29 30

 Impropers

1 1 20 14 18 13
2 2 17 15 16 20
3 1 15 17 18 22
4 3 19 14 18 17
5 2 14 20 21 15

