LAMMPS data file. CGCMM style. atom_style full generated by VMD/TopoTools v1.7 on Tue Jul 24 16:53:18 +0200 2018
 35 atoms
 34 bonds
 63 angles
 92 dihedrals
 0 impropers
 11 atom types
 11 bond types
 19 angle types
 18 dihedral types
 0 improper types
-4.0 8.0 xlo xhi 
-2.0 6.0 ylo yhi 
-2.0 9.0 zlo zhi 

Pair Coeffs 

1 0.0659 3.5 # C1 
2 0.0659 3.5 # C10 
3 0.0659 3.5 # C2 
4 0.0659 3.5 # C3 
5 0.0659 3.3 # C7 
6 0.0529 2.95 # F1 
7 0.02998 2.5 # H1 
8 0.02998 2.5 # H2 
9 0.1699 3.2 # N2 
10 0.1699 3.25 # N3 
11 0.1707 3.25 # N4 

Bond Coeffs 

1 267.746 1.529 # C1-C2 
2 339.758 1.09 # C1-H1 
3 381.747 1.448 # C1-N4 
4 267.746 1.529 # C10-C3 
5 366.76 1.332 # C10-F1 
6 267.746 1.529 # C2-C2 
7 267.746 1.529 # C2-C3 
8 339.758 1.09 # C2-H2 
9 339.758 1.09 # C3-H2 
10 649.565 1.157 # C7-N2 
11 502.293 1.31 # C7-N3 

Angle Coeffs 

1 58.314 112.7 # C1-C2-C2 
2 58.314 112.7 # C1-C2-C3 
3 37.475 110.7 # C1-C2-H2 
4 51.77 107.2 # C1-N4-C1 
5 58.36 112.7 # C10-C3-C2 
6 37.475 110.7 # C10-C3-H2 
7 37.475 110.7 # C2-C1-H1 
8 56.165 109.5 # C2-C1-N4 
9 37.475 110.7 # C2-C2-H2 
10 37.475 110.7 # C2-C3-H2 
11 49.967 109.5 # C3-C10-F1 
12 37.475 110.7 # C3-C2-H2 
13 43.231 118.5 # C7-N3-C7 
14 76.944 109.1 # F1-C10-F1 
15 31.898 107.8 # H1-C1-H1 
16 34.979 109.5 # H1-C1-N4 
17 31.898 107.8 # H2-C2-H2 
18 31.898 107.8 # H2-C3-H2 
19 50.755 175.2 # N2-C7-N3 

Dihedral Coeffs 

1 1.299 -0.05 0.199 0 # C1-C2-C2-C1 
2 0 0 0.3 0 # C1-C2-C2-H2 
3 0.104 -0.312 0.048 -0.083 # C1-C2-C3-C10 
4 0 0 0.3 0 # C1-C2-C3-H2 
5 -0.19 -0.417 0.418 0 # C2-C1-N4-C1 
6 0 0 0.4626 0 # F1-C10-C3-C2 
7 0 0 0.289 0 # F1-C10-C3-H2 
8 0 0 0.3 0 # H1-C1-C2-C2 
9 0 0 0.3 0 # H1-C1-C2-C3 
10 0 0 0.3 0 # H1-C1-C2-H2 
11 0 0 0.56 0 # H1-C1-N4-C1 
12 0 0 0.3 0 # H2-C2-C2-H2 
13 0 0 0.133 0 # H2-C2-C3-C10 
14 0 0 0.3 0 # H2-C2-C3-H2 
15 0.974 0 0 0 # N2-C7-N3-C7 
16 2.39 -0.674 0.55 0 # N4-C1-C2-C2 
17 2.39 -0.674 0.55 0 # N4-C1-C2-C3 
18 -1.012 -0.709 0.4727 0 # N4-C1-C2-H2 

 Masses

 1 12.010700 # C1
 2 12.010700 # C10
 3 12.010700 # C2
 4 12.010700 # C3
 5 12.010700 # C7
 6 18.998404 # F1
 7 1.007940 # H1
 8 1.007940 # H2
 9 14.006700 # N2
 10 14.006700 # N3
 11 14.006700 # N4

 Atoms # full

1 1 6 -0.12 6.536630 2.471600 4.585490 # F1 
2 1 6 -0.12 4.940020 3.474180 3.471380 # F1 
3 1 6 -0.12 5.693980 4.337250 5.333130 # F1 
4 1 2 0.36 5.393360 3.178960 4.708240 # C10 
5 1 8 0.06 4.092250 1.463090 4.947730 # H2 
6 1 8 0.06 4.718730 2.111170 6.474610 # H2 
7 1 4 -0.12 4.336760 2.395740 5.477980 # C3 
8 1 8 0.06 2.688740 3.435970 4.610060 # H2 
9 1 8 0.06 3.212970 4.131360 6.160650 # H2 
10 1 3 0.01 3.032730 3.185890 5.622100 # C2 
11 1 7 0.13 2.144340 1.272590 6.107320 # H1 
12 1 7 0.13 2.043790 2.458320 7.441970 # H1 
13 1 1 -0.17 1.997220 2.331680 6.348840 # C1 
14 1 11 0.12 0.571920 2.617500 5.955410 # N4 
15 1 3 0.01 -1.631160 1.653110 5.807980 # C2 
16 1 8 0.06 -2.078630 0.652300 5.837690 # H2 
17 1 8 0.06 -2.372940 2.366250 6.195470 # H2 
18 1 1 -0.17 0.328920 2.332830 4.486710 # C1 
19 1 7 0.13 0.667070 3.189060 3.901080 # H1 
20 1 7 0.13 0.935560 1.454460 4.253960 # H1 
21 1 1 -0.17 0.204710 4.022370 6.262840 # C1 
22 1 7 0.13 0.841210 4.689560 5.671280 # H1 
23 1 7 0.13 -0.846020 4.184670 5.996810 # H1 
24 1 7 0.13 0.353210 4.201270 7.335530 # H1 
25 1 1 -0.17 -0.358160 1.657920 6.652590 # C1 
26 1 7 0.13 0.133490 0.678680 6.634490 # H1 
27 1 7 0.13 -0.486380 1.988580 7.692450 # H1 
28 1 3 0.01 -1.168250 2.036940 4.380540 # C2 
29 1 8 0.06 -1.314660 1.202540 3.686900 # H2 
30 1 8 0.06 -1.722600 2.904600 3.996830 # H2 
31 1 9 -0.76 -0.623880 -0.682800 0.460650 # N2 
32 1 5 0.64 -0.690610 0.437720 -0.003800 # C7 
33 1 10 -0.76 -0.802920 1.623740 -0.628650 # N3 
34 1 5 0.64 -1.324180 2.591490 0.150500 # C7 
35 1 9 -0.76 -1.825930 3.504090 0.775190 # N2 

 Bonds

1 5 1 4
2 5 2 4
3 5 3 4
4 4 4 7
5 9 5 7
6 9 6 7
7 7 7 10
8 8 8 10
9 8 9 10
10 1 10 13
11 2 11 13
12 2 12 13
13 3 13 14
14 3 14 21
15 3 14 25
16 3 14 18
17 6 15 28
18 8 15 17
19 1 15 25
20 8 15 16
21 1 18 28
22 2 18 19
23 2 18 20
24 2 21 23
25 2 21 22
26 2 21 24
27 2 25 27
28 2 25 26
29 8 28 30
30 8 28 29
31 10 31 32
32 11 32 33
33 11 33 34
34 10 34 35

 Angles

1 14 1 4 2
2 14 1 4 3
3 11 1 4 7
4 14 2 4 3
5 11 2 4 7
6 11 3 4 7
7 6 4 7 5
8 6 4 7 6
9 5 4 7 10
10 18 5 7 6
11 10 5 7 10
12 10 6 7 10
13 12 7 10 8
14 12 7 10 9
15 2 7 10 13
16 17 8 10 9
17 3 8 10 13
18 3 9 10 13
19 7 10 13 11
20 7 10 13 12
21 8 10 13 14
22 15 11 13 12
23 16 11 13 14
24 16 12 13 14
25 4 13 14 21
26 4 13 14 25
27 4 13 14 18
28 4 21 14 25
29 4 18 14 21
30 4 18 14 25
31 9 17 15 28
32 1 25 15 28
33 9 16 15 28
34 3 17 15 25
35 17 16 15 17
36 3 16 15 25
37 8 14 18 28
38 16 14 18 19
39 16 14 18 20
40 7 19 18 28
41 7 20 18 28
42 15 19 18 20
43 16 14 21 23
44 16 14 21 22
45 16 14 21 24
46 15 22 21 23
47 15 23 21 24
48 15 22 21 24
49 8 14 25 15
50 16 14 25 27
51 16 14 25 26
52 7 15 25 27
53 7 15 25 26
54 15 26 25 27
55 1 15 28 18
56 9 15 28 30
57 9 15 28 29
58 3 18 28 30
59 3 18 28 29
60 17 29 28 30
61 19 31 32 33
62 13 32 33 34
63 19 33 34 35

 Dihedrals

1 7 1 4 7 5
2 7 1 4 7 6
3 6 1 4 7 10
4 7 2 4 7 5
5 7 2 4 7 6
6 6 2 4 7 10
7 7 3 4 7 5
8 7 3 4 7 6
9 6 3 4 7 10
10 13 4 7 10 8
11 13 4 7 10 9
12 3 4 7 10 13
13 14 5 7 10 8
14 14 5 7 10 9
15 4 5 7 10 13
16 14 6 7 10 8
17 14 6 7 10 9
18 4 6 7 10 13
19 9 7 10 13 11
20 9 7 10 13 12
21 17 7 10 13 14
22 10 8 10 13 11
23 10 8 10 13 12
24 18 8 10 13 14
25 10 9 10 13 11
26 10 9 10 13 12
27 18 9 10 13 14
28 5 10 13 14 21
29 5 10 13 14 25
30 5 10 13 14 18
31 11 11 13 14 21
32 11 11 13 14 25
33 11 11 13 14 18
34 11 12 13 14 21
35 11 12 13 14 25
36 11 12 13 14 18
37 11 13 14 21 23
38 11 13 14 21 22
39 11 13 14 21 24
40 11 25 14 21 23
41 11 25 14 21 22
42 11 25 14 21 24
43 11 18 14 21 23
44 11 18 14 21 22
45 11 18 14 21 24
46 5 13 14 25 15
47 11 13 14 25 27
48 11 13 14 25 26
49 5 21 14 25 15
50 11 21 14 25 27
51 11 21 14 25 26
52 5 18 14 25 15
53 11 18 14 25 27
54 11 18 14 25 26
55 5 13 14 18 28
56 11 13 14 18 19
57 11 13 14 18 20
58 5 21 14 18 28
59 11 21 14 18 19
60 11 21 14 18 20
61 5 25 14 18 28
62 11 25 14 18 19
63 11 25 14 18 20
64 2 17 15 28 18
65 12 17 15 28 30
66 12 17 15 28 29
67 1 25 15 28 18
68 2 25 15 28 30
69 2 25 15 28 29
70 2 16 15 28 18
71 12 16 15 28 30
72 12 16 15 28 29
73 16 28 15 25 14
74 8 28 15 25 27
75 8 28 15 25 26
76 18 17 15 25 14
77 10 17 15 25 27
78 10 17 15 25 26
79 18 16 15 25 14
80 10 16 15 25 27
81 10 16 15 25 26
82 16 14 18 28 15
83 18 14 18 28 30
84 18 14 18 28 29
85 8 19 18 28 15
86 10 19 18 28 30
87 10 19 18 28 29
88 8 20 18 28 15
89 10 20 18 28 30
90 10 20 18 28 29
91 15 31 32 33 34
92 15 32 33 34 35

