LAMMPS data file. CGCMM style. atom_style full generated by VMD/TopoTools v1.7 on Tue Jul 24 16:53:18 +0200 2018
 30 atoms
 29 bonds
 48 angles
 61 dihedrals
 5 impropers
 15 atom types
 15 bond types
 24 angle types
 26 dihedral types
 3 improper types
-9.0 3.0 xlo xhi 
-3.0 7.0 ylo yhi 
-10.0 1.0 zlo zhi 

Pair Coeffs 

1 0.0659 3.5 # C1 
2 0.0659 3.5 # C10 
3 0.0659 3.5 # C2 
4 0.0659 3.5 # C3 
5 0.0699 3.55 # C5 
6 0.0699 3.55 # C6 
7 0.0659 3.3 # C7 
8 0.0529 2.95 # F1 
9 0.02998 2.5 # H1 
10 0.02998 2.5 # H2 
11 0.02998 2.42 # H3 
12 0.02998 2.42 # H4 
13 0.1699 3.25 # N1 
14 0.1699 3.2 # N2 
15 0.1699 3.25 # N3 

Bond Coeffs 

1 267.746 1.529 # C1-C2 
2 339.758 1.09 # C1-H1 
3 336.773 1.466 # C1-N1 
4 267.746 1.529 # C10-C3 
5 366.76 1.332 # C10-F1 
6 267.746 1.529 # C2-C3 
7 339.758 1.09 # C2-H2 
8 339.758 1.09 # C3-H2 
9 339.758 1.08 # C5-H4 
10 476.736 1.315 # C5-N1 
11 519.729 1.341 # C6-C6 
12 339.758 1.08 # C6-H3 
13 426.818 1.378 # C6-N1 
14 649.565 1.157 # C7-N2 
15 502.293 1.31 # C7-N3 

Angle Coeffs 

1 58.314 112.7 # C1-C2-C3 
2 37.475 110.7 # C1-C2-H2 
3 69.958 126.4 # C1-N1-C5 
4 69.958 125.6 # C1-N1-C6 
5 58.36 112.7 # C10-C3-C2 
6 37.475 110.7 # C10-C3-H2 
7 37.475 110.7 # C2-C1-H1 
8 58.314 112.7 # C2-C1-N1 
9 37.475 110.7 # C2-C3-H2 
10 49.967 109.5 # C3-C10-F1 
11 37.475 110.7 # C3-C2-H2 
12 69.958 108.0 # C5-N1-C6 
13 34.979 130.9 # C6-C6-H3 
14 69.958 107.1 # C6-C6-N1 
15 43.231 118.5 # C7-N3-C7 
16 76.944 109.1 # F1-C10-F1 
17 31.898 107.8 # H1-C1-H1 
18 37.475 110.7 # H1-C1-N1 
19 31.898 107.8 # H2-C2-H2 
20 31.898 107.8 # H2-C3-H2 
21 34.979 122.0 # H3-C6-N1 
22 34.979 125.1 # H4-C5-N1 
23 69.958 109.8 # N1-C5-N1 
24 50.755 175.2 # N2-C7-N3 

Dihedral Coeffs 

1 0.104 -0.312 0.048 -0.083 # C1-C2-C3-C10 
2 0 0 0.3 0 # C1-C2-C3-H2 
3 -1.259 0 0 0 # C2-C1-N1-C5 
4 -1.709 1.458 0.19 0 # C2-C1-N1-C6 
5 0 3 0 0 # C6-C6-N1-C1 
6 0 3 0 0 # C6-C6-N1-C5 
7 0 0 0.4626 0 # F1-C10-C3-C2 
8 0 0 0.289 0 # F1-C10-C3-H2 
9 0 0 0.3 0 # H1-C1-C2-C3 
10 0 0 0.3 0 # H1-C1-C2-H2 
11 0 0 0 0 # H1-C1-N1-C5 
12 0 0 0.124 0 # H1-C1-N1-C6 
13 0 0 0.133 0 # H2-C2-C3-C10 
14 0 0 0.3 0 # H2-C2-C3-H2 
15 0 10.743 0 0 # H3-C6-C6-H3 
16 0 10.743 0 0 # H3-C6-C6-N1 
17 0 3 0 0 # H3-C6-N1-C1 
18 0 3 0 0 # H3-C6-N1-C5 
19 0 4.648 0 0 # H4-C5-N1-C1 
20 0 4.648 0 0 # H4-C5-N1-C6 
21 -1.786 0.756 -0.287 0 # N1-C1-C2-C3 
22 0 0 0.088 0 # N1-C1-C2-H2 
23 0 4.648 0 0 # N1-C5-N1-C1 
24 0 4.648 0 0 # N1-C5-N1-C6 
25 0 10.743 0 0 # N1-C6-C6-N1 
26 0.974 0 0 0 # N2-C7-N3-C7 

Improper Coeffs 

1 2 -1 2 # C1-C5-N1-C6 
2 2.199 -1 2 # C6-H3-C6-N1 
3 2.199 -1 2 # H4-N1-C5-N1 

 Masses

 1 12.010700 # C1
 2 12.010700 # C10
 3 12.010700 # C2
 4 12.010700 # C3
 5 12.010700 # C5
 6 12.010700 # C6
 7 12.010700 # C7
 8 18.998404 # F1
 9 1.007940 # H1
 10 1.007940 # H2
 11 1.007940 # H3
 12 1.007940 # H4
 13 14.006700 # N1
 14 14.006700 # N2
 15 14.006700 # N3

 Atoms # full

1 1 8 -0.12 -7.360300 1.967630 -4.875090 # F1 
2 1 8 -0.12 -6.210880 1.835750 -3.010870 # F1 
3 1 8 -0.12 -7.505740 3.561280 -3.383820 # F1 
4 1 2 0.36 -6.664100 2.678790 -3.962910 # C10 
5 1 10 0.06 -4.876060 3.912700 -3.839290 # H2 
6 1 10 0.06 -5.828370 4.169740 -5.336190 # H2 
7 1 4 -0.12 -5.468460 3.392160 -4.624340 # C3 
8 1 10 0.06 -5.118040 1.914090 -6.205570 # H2 
9 1 10 0.06 -4.286900 1.573090 -4.655360 # H2 
10 1 3 0.01 -4.570010 2.378860 -5.358740 # C2 
11 1 9 0.13 -2.656780 3.406470 -5.030980 # H1 
12 1 9 0.13 -3.487180 3.886420 -6.555930 # H1 
13 1 1 -0.17 -3.208610 3.129420 -5.933630 # C1 
14 1 13 0.15 -2.441020 2.067820 -6.624080 # N1 
15 1 6 -0.13 -1.799030 0.551840 -8.135690 # C6 
16 1 11 0.21 -1.676610 -0.131280 -8.981830 # H3 
17 1 13 0.15 -0.897120 0.569500 -7.079130 # N1 
18 1 5 -0.11 -1.291780 1.498410 -6.165940 # C5 
19 1 12 0.21 -0.775830 1.745560 -5.224860 # H4 
20 1 6 -0.13 -2.780960 1.495380 -7.843200 # C6 
21 1 11 0.21 -3.669760 1.792480 -8.407070 # H3 
22 1 1 -0.17 0.306260 -0.289540 -6.985890 # C1 
23 1 9 0.13 0.098350 -1.196430 -7.584920 # H1 
24 1 9 0.13 0.452810 -0.573980 -5.926630 # H1 
25 1 9 0.13 1.183460 0.256900 -7.378860 # H1 
26 1 14 -0.76 -1.715890 1.400530 -0.952640 # N2 
27 1 7 0.64 -1.782630 2.521050 -1.417090 # C7 
28 1 15 -0.76 -1.894930 3.707070 -2.041930 # N3 
29 1 7 0.64 -2.416190 4.674820 -1.262780 # C7 
30 1 14 -0.76 -2.917940 5.587420 -0.638100 # N2 

 Bonds

1 5 1 4
2 5 2 4
3 5 3 4
4 4 4 7
5 8 5 7
6 8 6 7
7 6 7 10
8 7 8 10
9 7 9 10
10 1 10 13
11 2 11 13
12 2 12 13
13 3 13 14
14 13 14 20
15 10 14 18
16 12 15 16
17 13 15 17
18 11 15 20
19 3 17 22
20 10 17 18
21 9 18 19
22 12 20 21
23 2 22 23
24 2 22 25
25 2 22 24
26 14 26 27
27 15 27 28
28 15 28 29
29 14 29 30

 Angles

1 16 1 4 2
2 16 1 4 3
3 10 1 4 7
4 16 2 4 3
5 10 2 4 7
6 10 3 4 7
7 6 4 7 5
8 6 4 7 6
9 5 4 7 10
10 20 5 7 6
11 9 5 7 10
12 9 6 7 10
13 11 7 10 8
14 11 7 10 9
15 1 7 10 13
16 19 8 10 9
17 2 8 10 13
18 2 9 10 13
19 7 10 13 11
20 7 10 13 12
21 8 10 13 14
22 17 11 13 12
23 18 11 13 14
24 18 12 13 14
25 4 13 14 20
26 3 13 14 18
27 12 18 14 20
28 21 16 15 17
29 13 16 15 20
30 14 17 15 20
31 4 15 17 22
32 12 15 17 18
33 3 18 17 22
34 23 14 18 17
35 22 14 18 19
36 22 17 18 19
37 14 14 20 15
38 21 14 20 21
39 13 15 20 21
40 18 17 22 23
41 18 17 22 25
42 18 17 22 24
43 17 23 22 25
44 17 23 22 24
45 17 24 22 25
46 24 26 27 28
47 15 27 28 29
48 24 28 29 30

 Dihedrals

1 8 1 4 7 5
2 8 1 4 7 6
3 7 1 4 7 10
4 8 2 4 7 5
5 8 2 4 7 6
6 7 2 4 7 10
7 8 3 4 7 5
8 8 3 4 7 6
9 7 3 4 7 10
10 13 4 7 10 8
11 13 4 7 10 9
12 1 4 7 10 13
13 14 5 7 10 8
14 14 5 7 10 9
15 2 5 7 10 13
16 14 6 7 10 8
17 14 6 7 10 9
18 2 6 7 10 13
19 9 7 10 13 11
20 9 7 10 13 12
21 21 7 10 13 14
22 10 8 10 13 11
23 10 8 10 13 12
24 22 8 10 13 14
25 10 9 10 13 11
26 10 9 10 13 12
27 22 9 10 13 14
28 4 10 13 14 20
29 3 10 13 14 18
30 12 11 13 14 20
31 11 11 13 14 18
32 12 12 13 14 20
33 11 12 13 14 18
34 5 13 14 20 15
35 17 13 14 20 21
36 6 18 14 20 15
37 18 18 14 20 21
38 23 13 14 18 17
39 19 13 14 18 19
40 24 20 14 18 17
41 20 20 14 18 19
42 17 16 15 17 22
43 18 16 15 17 18
44 5 20 15 17 22
45 6 20 15 17 18
46 16 16 15 20 14
47 15 16 15 20 21
48 25 17 15 20 14
49 16 17 15 20 21
50 12 15 17 22 23
51 12 15 17 22 25
52 12 15 17 22 24
53 11 18 17 22 23
54 11 18 17 22 25
55 11 18 17 22 24
56 24 15 17 18 14
57 20 15 17 18 19
58 23 22 17 18 14
59 19 22 17 18 19
60 26 26 27 28 29
61 26 27 28 29 30

 Impropers

1 1 20 14 18 13
2 2 17 15 16 20
3 1 15 17 18 22
4 3 19 14 18 17
5 2 14 20 21 15

