LAMMPS data file. CGCMM style. atom_style full generated by VMD/TopoTools v1.7 on Wed Feb 06 15:08:32 AEDT 2019
 55 atoms
 54 bonds
 111 angles
 162 dihedrals
 0 impropers
 15 atom types
 18 bond types
 36 angle types
 35 dihedral types
 0 improper types
-7.0 8.0 xlo xhi 
-2.0 6.0 ylo yhi 
-6.0 9.0 zlo zhi 

Pair Coeffs 

1 0.0659 3.5 # C1 
2 0.0659 3.5 # C11 
3 0.0659 3.5 # C12 
4 0.0659 3.5 # C13 
5 0.0659 3.5 # C2 
6 0.0659 3.5 # C3 
7 0.0659 3.5 # C4 
8 0.0609 3.12 # F2 
9 0.0609 3.12 # F3 
10 0.0609 3.12 # F4 
11 0.0609 3.12 # F5 
12 0.02998 2.5 # H1 
13 0.02998 2.5 # H2 
14 0.1707 3.25 # N4 
15 0.2 3.74 # P1 

Bond Coeffs 

1 267.746 1.529 # C1-C2 
2 339.758 1.09 # C1-H1 
3 381.747 1.448 # C1-N4 
4 267.818 1.529 # C11-C12 
5 366.76 1.332 # C11-F2 
6 423.951 1.81 # C11-P1 
7 267.818 1.529 # C12-C13 
8 366.76 1.332 # C12-F3 
9 366.76 1.332 # C13-F2 
10 423.951 1.81 # C13-P1 
11 267.746 1.529 # C2-C2 
12 267.746 1.529 # C2-C3 
13 339.758 1.09 # C2-H2 
14 267.746 1.529 # C3-C4 
15 339.758 1.09 # C3-H2 
16 339.758 1.09 # C4-H2 
17 370.211 1.606 # F4-P1 
18 370.211 1.606 # F5-P1 

Angle Coeffs 

1 58.314 112.7 # C1-C2-C2 
2 58.314 112.7 # C1-C2-C3 
3 37.475 110.7 # C1-C2-H2 
4 51.77 107.2 # C1-N4-C1 
5 49.967 109.5 # C11-C12-F3 
6 0 0 # C11-P1-C11 
7 102.5 90.0 # C11-P1-C13 
8 117.38 90.0 # C11-P1-F4 
9 117.38 90.0 # C11-P1-F5 
10 49.967 109.5 # C12-C11-F2 
11 50.48 119.5 # C12-C11-P1 
12 49.967 109.5 # C12-C13-F2 
13 50.48 119.5 # C12-C13-P1 
14 49.967 109.5 # C13-C12-F3 
15 117.38 90.0 # C13-P1-F4 
16 0 0 # C13-P1-F5 
17 37.475 110.7 # C2-C1-H1 
18 56.165 109.5 # C2-C1-N4 
19 37.475 110.7 # C2-C2-H2 
20 58.314 112.7 # C2-C3-C4 
21 37.475 110.7 # C2-C3-H2 
22 37.475 110.7 # C3-C2-H2 
23 37.475 110.7 # C3-C4-H2 
24 37.475 110.7 # C4-C3-H2 
25 76.944 109.1 # F2-C11-F2 
26 62.494 112.3 # F2-C11-P1 
27 76.944 109.1 # F2-C13-F2 
28 62.494 112.3 # F2-C13-P1 
29 76.944 109.1 # F3-C12-F3 
30 0 0 # F4-P1-F4 
31 138.29 90.0 # F4-P1-F5 
32 31.898 107.8 # H1-C1-H1 
33 34.979 109.5 # H1-C1-N4 
34 31.898 107.8 # H2-C2-H2 
35 31.898 107.8 # H2-C3-H2 
36 31.898 107.8 # H2-C4-H2 

Dihedral Coeffs 

1 1.299 -0.05 0.199 0 # C1-C2-C2-C1 
2 0 0 0.3 0 # C1-C2-C2-H2 
3 1.299 -0.05 0.199 0 # C1-C2-C3-C4 
4 0 0 0.3 0 # C1-C2-C3-H2 
5 7.55 -0.559 -0.703 -2.004 # C12-C11-P1-C11 
6 7.55 -0.559 -0.703 -2.004 # C12-C11-P1-C13 
7 -0.0206 -0.024 0.0212 1.051 # C12-C11-P1-F4 
8 -0.0206 -0.024 0.0212 1.051 # C12-C11-P1-F5 
9 7.55 -0.559 -0.703 -2.004 # C12-C13-P1-C11 
10 -0.0206 -0.024 0.0212 1.051 # C12-C13-P1-F4 
11 -0.0206 -0.024 0.0212 1.051 # C12-C13-P1-F5 
12 -0.19 -0.417 0.418 0 # C2-C1-N4-C1 
13 0 0 0.3 0 # C2-C3-C4-H2 
14 -2.498 0 0.249 0 # F2-C11-C12-F3 
15 -0.0291 -0.0645 -0.769 0 # F2-C11-P1-C11 
16 -0.0291 -0.0645 -0.769 0 # F2-C11-P1-C13 
17 0 0 0 0 # F2-C11-P1-F4 
18 0 0 0 0 # F2-C11-P1-F5 
19 -0.0291 -0.0645 -0.769 0 # F2-C13-P1-C11 
20 0 0 0 0 # F2-C13-P1-F4 
21 0 0 0 0 # F2-C13-P1-F5 
22 -2.498 0 0.249 0 # F3-C12-C13-F2 
23 -0.136 0.303 1.8117 0 # F3-C12-C13-P1 
24 0 0 0.3 0 # H1-C1-C2-C2 
25 0 0 0.3 0 # H1-C1-C2-C3 
26 0 0 0.3 0 # H1-C1-C2-H2 
27 0 0 0.56 0 # H1-C1-N4-C1 
28 0 0 0.3 0 # H2-C2-C2-H2 
29 0 0 0.3 0 # H2-C2-C3-C4 
30 0 0 0.3 0 # H2-C2-C3-H2 
31 0 0 0.3 0 # H2-C3-C4-H2 
32 2.39 -0.674 0.55 0 # N4-C1-C2-C2 
33 2.39 -0.674 0.55 0 # N4-C1-C2-C3 
34 -1.012 -0.709 0.4727 0 # N4-C1-C2-H2 
35 -0.136 0.303 1.8117 0 # P1-C11-C12-F3 

 Masses

 1 12.010700 # C1
 2 12.010700 # C11
 3 12.010700 # C12
 4 12.010700 # C13
 5 12.010700 # C2
 6 12.010700 # C3
 7 12.010700 # C4
 8 18.998404 # F2
 9 18.998404 # F3
 10 18.998404 # F4
 11 18.998404 # F5
 12 1.007940 # H1
 13 1.007940 # H2
 14 14.006700 # N4
 15 30.973761 # P1

 Atoms # full

1 1 13 0.06 6.380300 2.815470 4.723090 # H2 
2 1 13 0.06 5.079380 3.632360 3.815700 # H2 
3 1 13 0.06 5.693980 4.337250 5.333130 # H2 
4 1 7 -0.18 5.448620 3.391910 4.823120 # C4 
5 1 13 0.06 4.147520 1.676040 5.062620 # H2 
6 1 13 0.06 4.774000 2.324120 6.589490 # H2 
7 1 6 -0.12 4.392030 2.608690 5.592860 # C3 
8 1 13 0.06 2.744010 3.648910 4.724950 # H2 
9 1 13 0.06 3.268230 4.344310 6.275530 # H2 
10 1 5 0.01 3.088000 3.398840 5.736980 # C2 
11 1 12 0.13 2.199600 1.485540 6.222200 # H1 
12 1 12 0.13 2.099060 2.671260 7.556860 # H1 
13 1 1 -0.17 2.052490 2.544620 6.463720 # C1 
14 1 14 0.12 0.627190 2.830450 6.070290 # N4 
15 1 5 0.01 -1.575900 1.866060 5.922860 # C2 
16 1 13 0.06 -2.023360 0.865250 5.952580 # H2 
17 1 13 0.06 -2.317670 2.579200 6.310350 # H2 
18 1 1 -0.17 0.384190 2.545780 4.601590 # C1 
19 1 12 0.13 0.722340 3.402010 4.015970 # H1 
20 1 12 0.13 0.990830 1.667410 4.368840 # H1 
21 1 1 -0.17 0.259980 4.235310 6.377730 # C1 
22 1 12 0.13 0.896480 4.902510 5.786160 # H1 
23 1 12 0.13 -0.790760 4.397620 6.111690 # H1 
24 1 12 0.13 0.408470 4.414220 7.450420 # H1 
25 1 1 -0.17 -0.302900 1.870860 6.767470 # C1 
26 1 12 0.13 0.188760 0.891620 6.749380 # H1 
27 1 12 0.13 -0.431120 2.201530 7.807330 # H1 
28 1 5 0.01 -1.112980 2.249890 4.495430 # C2 
29 1 13 0.06 -1.259400 1.415490 3.801780 # H2 
30 1 13 0.06 -1.667330 3.117550 4.111710 # H2 
31 1 11 -0.39 -2.228370 1.654870 0.694050 # F5 
32 1 10 -0.39 -1.647680 3.137870 -1.012970 # F4 
33 1 10 -0.39 -3.302860 0.277270 -0.914050 # F4 
34 1 15 0.62 -2.468940 1.706850 -0.936760 # P1 
35 1 2 0.24 -0.836000 0.708120 -1.137010 # C11 
36 1 4 0.24 -2.706180 1.862500 -2.856970 # C13 
37 1 2 0.24 -4.119950 2.613260 -0.513470 # C11 
38 1 8 -0.12 -1.488490 1.847810 -3.472770 # F2 
39 1 8 -0.12 -3.246640 3.077550 -3.149370 # F2 
40 1 8 -0.12 0.215740 1.475370 -1.523380 # F2 
41 1 8 -0.12 -0.990150 -0.263040 -2.078910 # F2 
42 1 8 -0.12 -4.691870 2.006460 0.561340 # F2 
43 1 8 -0.12 -5.054520 2.558480 -1.501700 # F2 
44 1 3 0.42 -4.027640 4.096940 -0.129440 # C12 
45 1 3 0.42 -3.544360 0.835120 -3.643360 # C12 
46 1 3 0.42 -0.320030 -0.046060 0.104580 # C12 
47 1 9 -0.19 -2.991820 -0.375200 -3.638410 # F3 
48 1 9 -0.19 0.169490 0.779880 1.027640 # F3 
49 1 9 -0.19 0.692700 -0.852430 -0.268330 # F3 
50 1 9 -0.19 -1.250540 -0.818220 0.658850 # F3 
51 1 9 -0.19 -3.616190 1.231300 -4.929310 # F3 
52 1 9 -0.19 -4.792300 0.720580 -3.198940 # F3 
53 1 9 -0.19 -3.184320 4.298180 0.881180 # F3 
54 1 9 -0.19 -5.239320 4.527960 0.272870 # F3 
55 1 9 -0.19 -3.663760 4.863990 -1.154300 # F3 

 Bonds

1 16 1 4
2 16 2 4
3 16 3 4
4 14 4 7
5 15 5 7
6 15 6 7
7 12 7 10
8 13 8 10
9 13 9 10
10 1 10 13
11 2 11 13
12 2 12 13
13 3 13 14
14 3 14 25
15 3 14 21
16 3 14 18
17 11 15 28
18 13 15 16
19 13 15 17
20 1 15 25
21 1 18 28
22 2 18 19
23 2 18 20
24 2 21 22
25 2 21 23
26 2 21 24
27 2 25 27
28 2 25 26
29 13 28 29
30 13 28 30
31 18 31 34
32 17 32 34
33 17 33 34
34 10 34 36
35 6 34 35
36 6 34 37
37 5 35 41
38 5 35 40
39 4 35 46
40 9 36 38
41 9 36 39
42 7 36 45
43 5 37 42
44 4 37 44
45 5 37 43
46 8 44 55
47 8 44 53
48 8 44 54
49 8 45 51
50 8 45 52
51 8 45 47
52 8 46 48
53 8 46 49
54 8 46 50

 Angles

1 36 1 4 2
2 36 1 4 3
3 23 1 4 7
4 36 2 4 3
5 23 2 4 7
6 23 3 4 7
7 24 4 7 5
8 24 4 7 6
9 20 4 7 10
10 35 5 7 6
11 21 5 7 10
12 21 6 7 10
13 22 7 10 8
14 22 7 10 9
15 2 7 10 13
16 34 8 10 9
17 3 8 10 13
18 3 9 10 13
19 17 10 13 11
20 17 10 13 12
21 18 10 13 14
22 32 11 13 12
23 33 11 13 14
24 33 12 13 14
25 4 13 14 25
26 4 13 14 21
27 4 13 14 18
28 4 21 14 25
29 4 18 14 25
30 4 18 14 21
31 19 16 15 28
32 19 17 15 28
33 1 25 15 28
34 34 16 15 17
35 3 16 15 25
36 3 17 15 25
37 18 14 18 28
38 33 14 18 19
39 33 14 18 20
40 17 19 18 28
41 17 20 18 28
42 32 19 18 20
43 33 14 21 22
44 33 14 21 23
45 33 14 21 24
46 32 22 21 23
47 32 22 21 24
48 32 23 21 24
49 18 14 25 15
50 33 14 25 27
51 33 14 25 26
52 17 15 25 27
53 17 15 25 26
54 32 26 25 27
55 1 15 28 18
56 19 15 28 29
57 19 15 28 30
58 3 18 28 29
59 3 18 28 30
60 34 29 28 30
61 31 31 34 32
62 31 31 34 33
63 16 31 34 36
64 9 31 34 35
65 9 31 34 37
66 30 32 34 33
67 15 32 34 36
68 8 32 34 35
69 8 32 34 37
70 15 33 34 36
71 8 33 34 35
72 8 33 34 37
73 7 35 34 36
74 7 36 34 37
75 6 35 34 37
76 26 34 35 41
77 26 34 35 40
78 11 34 35 46
79 25 40 35 41
80 10 41 35 46
81 10 40 35 46
82 28 34 36 38
83 28 34 36 39
84 13 34 36 45
85 27 38 36 39
86 12 38 36 45
87 12 39 36 45
88 26 34 37 42
89 11 34 37 44
90 26 34 37 43
91 10 42 37 44
92 25 42 37 43
93 10 43 37 44
94 5 37 44 55
95 5 37 44 53
96 5 37 44 54
97 29 53 44 55
98 29 54 44 55
99 29 53 44 54
100 14 36 45 51
101 14 36 45 52
102 14 36 45 47
103 29 51 45 52
104 29 47 45 51
105 29 47 45 52
106 5 35 46 48
107 5 35 46 49
108 5 35 46 50
109 29 48 46 49
110 29 48 46 50
111 29 49 46 50

 Dihedrals

1 31 1 4 7 5
2 31 1 4 7 6
3 13 1 4 7 10
4 31 2 4 7 5
5 31 2 4 7 6
6 13 2 4 7 10
7 31 3 4 7 5
8 31 3 4 7 6
9 13 3 4 7 10
10 29 4 7 10 8
11 29 4 7 10 9
12 3 4 7 10 13
13 30 5 7 10 8
14 30 5 7 10 9
15 4 5 7 10 13
16 30 6 7 10 8
17 30 6 7 10 9
18 4 6 7 10 13
19 25 7 10 13 11
20 25 7 10 13 12
21 33 7 10 13 14
22 26 8 10 13 11
23 26 8 10 13 12
24 34 8 10 13 14
25 26 9 10 13 11
26 26 9 10 13 12
27 34 9 10 13 14
28 12 10 13 14 25
29 12 10 13 14 21
30 12 10 13 14 18
31 27 11 13 14 25
32 27 11 13 14 21
33 27 11 13 14 18
34 27 12 13 14 25
35 27 12 13 14 21
36 27 12 13 14 18
37 12 13 14 25 15
38 27 13 14 25 27
39 27 13 14 25 26
40 12 21 14 25 15
41 27 21 14 25 27
42 27 21 14 25 26
43 12 18 14 25 15
44 27 18 14 25 27
45 27 18 14 25 26
46 27 13 14 21 22
47 27 13 14 21 23
48 27 13 14 21 24
49 27 25 14 21 22
50 27 25 14 21 23
51 27 25 14 21 24
52 27 18 14 21 22
53 27 18 14 21 23
54 27 18 14 21 24
55 12 13 14 18 28
56 27 13 14 18 19
57 27 13 14 18 20
58 12 25 14 18 28
59 27 25 14 18 19
60 27 25 14 18 20
61 12 21 14 18 28
62 27 21 14 18 19
63 27 21 14 18 20
64 2 16 15 28 18
65 28 16 15 28 29
66 28 16 15 28 30
67 2 17 15 28 18
68 28 17 15 28 29
69 28 17 15 28 30
70 1 25 15 28 18
71 2 25 15 28 29
72 2 25 15 28 30
73 32 28 15 25 14
74 24 28 15 25 27
75 24 28 15 25 26
76 34 16 15 25 14
77 26 16 15 25 27
78 26 16 15 25 26
79 34 17 15 25 14
80 26 17 15 25 27
81 26 17 15 25 26
82 32 14 18 28 15
83 34 14 18 28 29
84 34 14 18 28 30
85 24 19 18 28 15
86 26 19 18 28 29
87 26 19 18 28 30
88 24 20 18 28 15
89 26 20 18 28 29
90 26 20 18 28 30
91 21 31 34 36 38
92 21 31 34 36 39
93 11 31 34 36 45
94 20 32 34 36 38
95 20 32 34 36 39
96 10 32 34 36 45
97 20 33 34 36 38
98 20 33 34 36 39
99 10 33 34 36 45
100 19 35 34 36 38
101 19 35 34 36 39
102 9 35 34 36 45
103 19 37 34 36 38
104 19 37 34 36 39
105 9 37 34 36 45
106 18 31 34 35 41
107 18 31 34 35 40
108 8 31 34 35 46
109 17 32 34 35 41
110 17 32 34 35 40
111 7 32 34 35 46
112 17 33 34 35 41
113 17 33 34 35 40
114 7 33 34 35 46
115 16 36 34 35 41
116 16 36 34 35 40
117 6 36 34 35 46
118 15 37 34 35 41
119 15 37 34 35 40
120 5 37 34 35 46
121 18 31 34 37 42
122 8 31 34 37 44
123 18 31 34 37 43
124 17 32 34 37 42
125 7 32 34 37 44
126 17 32 34 37 43
127 17 33 34 37 42
128 7 33 34 37 44
129 17 33 34 37 43
130 16 36 34 37 42
131 6 36 34 37 44
132 16 36 34 37 43
133 15 35 34 37 42
134 5 35 34 37 44
135 15 35 34 37 43
136 35 34 35 46 48
137 35 34 35 46 49
138 35 34 35 46 50
139 14 41 35 46 48
140 14 41 35 46 49
141 14 41 35 46 50
142 14 40 35 46 48
143 14 40 35 46 49
144 14 40 35 46 50
145 23 34 36 45 51
146 23 34 36 45 52
147 23 34 36 45 47
148 22 38 36 45 51
149 22 38 36 45 52
150 22 38 36 45 47
151 22 39 36 45 51
152 22 39 36 45 52
153 22 39 36 45 47
154 35 34 37 44 55
155 35 34 37 44 53
156 35 34 37 44 54
157 14 42 37 44 55
158 14 42 37 44 53
159 14 42 37 44 54
160 14 43 37 44 55
161 14 43 37 44 53
162 14 43 37 44 54

