LAMMPS data file. CGCMM style. atom_style full generated by VMD/TopoTools v1.7 on Wed Feb 06 15:08:32 AEDT 2019
 35 atoms
 34 bonds
 63 angles
 92 dihedrals
 0 impropers
 10 atom types
 11 bond types
 19 angle types
 18 dihedral types
 0 improper types
-4.0 8.0 xlo xhi 
-2.0 6.0 ylo yhi 
-2.0 9.0 zlo zhi 

Pair Coeffs 

1 0.0659 3.5 # C1 
2 0.0659 3.5 # C2 
3 0.0659 3.5 # C3 
4 0.0659 3.5 # C4 
5 0.0659 3.3 # C7 
6 0.02998 2.5 # H1 
7 0.02998 2.5 # H2 
8 0.1699 3.2 # N2 
9 0.1699 3.25 # N3 
10 0.1707 3.25 # N4 

Bond Coeffs 

1 267.746 1.529 # C1-C2 
2 339.758 1.09 # C1-H1 
3 381.747 1.448 # C1-N4 
4 267.746 1.529 # C2-C2 
5 267.746 1.529 # C2-C3 
6 339.758 1.09 # C2-H2 
7 267.746 1.529 # C3-C4 
8 339.758 1.09 # C3-H2 
9 339.758 1.09 # C4-H2 
10 649.565 1.157 # C7-N2 
11 502.293 1.31 # C7-N3 

Angle Coeffs 

1 58.314 112.7 # C1-C2-C2 
2 58.314 112.7 # C1-C2-C3 
3 37.475 110.7 # C1-C2-H2 
4 51.77 107.2 # C1-N4-C1 
5 37.475 110.7 # C2-C1-H1 
6 56.165 109.5 # C2-C1-N4 
7 37.475 110.7 # C2-C2-H2 
8 58.314 112.7 # C2-C3-C4 
9 37.475 110.7 # C2-C3-H2 
10 37.475 110.7 # C3-C2-H2 
11 37.475 110.7 # C3-C4-H2 
12 37.475 110.7 # C4-C3-H2 
13 43.231 118.5 # C7-N3-C7 
14 31.898 107.8 # H1-C1-H1 
15 34.979 109.5 # H1-C1-N4 
16 31.898 107.8 # H2-C2-H2 
17 31.898 107.8 # H2-C3-H2 
18 31.898 107.8 # H2-C4-H2 
19 50.755 175.2 # N2-C7-N3 

Dihedral Coeffs 

1 1.299 -0.05 0.199 0 # C1-C2-C2-C1 
2 0 0 0.3 0 # C1-C2-C2-H2 
3 1.299 -0.05 0.199 0 # C1-C2-C3-C4 
4 0 0 0.3 0 # C1-C2-C3-H2 
5 -0.19 -0.417 0.418 0 # C2-C1-N4-C1 
6 0 0 0.3 0 # C2-C3-C4-H2 
7 0 0 0.3 0 # H1-C1-C2-C2 
8 0 0 0.3 0 # H1-C1-C2-C3 
9 0 0 0.3 0 # H1-C1-C2-H2 
10 0 0 0.56 0 # H1-C1-N4-C1 
11 0 0 0.3 0 # H2-C2-C2-H2 
12 0 0 0.3 0 # H2-C2-C3-C4 
13 0 0 0.3 0 # H2-C2-C3-H2 
14 0 0 0.3 0 # H2-C3-C4-H2 
15 0.974 0 0 0 # N2-C7-N3-C7 
16 2.39 -0.674 0.55 0 # N4-C1-C2-C2 
17 2.39 -0.674 0.55 0 # N4-C1-C2-C3 
18 -1.012 -0.709 0.4727 0 # N4-C1-C2-H2 

 Masses

 1 12.010700 # C1
 2 12.010700 # C2
 3 12.010700 # C3
 4 12.010700 # C4
 5 12.010700 # C7
 6 1.007940 # H1
 7 1.007940 # H2
 8 14.006700 # N2
 9 14.006700 # N3
 10 14.006700 # N4

 Atoms # full

1 1 7 0.06 6.380300 2.815470 4.723090 # H2 
2 1 7 0.06 5.079380 3.632360 3.815700 # H2 
3 1 7 0.06 5.693980 4.337250 5.333130 # H2 
4 1 4 -0.18 5.448620 3.391910 4.823120 # C4 
5 1 7 0.06 4.147520 1.676040 5.062620 # H2 
6 1 7 0.06 4.774000 2.324120 6.589490 # H2 
7 1 3 -0.12 4.392030 2.608690 5.592860 # C3 
8 1 7 0.06 2.744010 3.648910 4.724950 # H2 
9 1 7 0.06 3.268230 4.344310 6.275530 # H2 
10 1 2 0.01 3.088000 3.398840 5.736980 # C2 
11 1 6 0.13 2.199600 1.485540 6.222200 # H1 
12 1 6 0.13 2.099060 2.671260 7.556860 # H1 
13 1 1 -0.17 2.052490 2.544620 6.463720 # C1 
14 1 10 0.12 0.627190 2.830450 6.070290 # N4 
15 1 2 0.01 -1.575900 1.866060 5.922860 # C2 
16 1 7 0.06 -2.023360 0.865250 5.952580 # H2 
17 1 7 0.06 -2.317670 2.579200 6.310350 # H2 
18 1 1 -0.17 0.384190 2.545780 4.601590 # C1 
19 1 6 0.13 0.722340 3.402010 4.015970 # H1 
20 1 6 0.13 0.990830 1.667410 4.368840 # H1 
21 1 1 -0.17 0.259980 4.235310 6.377730 # C1 
22 1 6 0.13 0.896480 4.902510 5.786160 # H1 
23 1 6 0.13 -0.790760 4.397620 6.111690 # H1 
24 1 6 0.13 0.408470 4.414220 7.450420 # H1 
25 1 1 -0.17 -0.302900 1.870860 6.767470 # C1 
26 1 6 0.13 0.188760 0.891620 6.749380 # H1 
27 1 6 0.13 -0.431120 2.201530 7.807330 # H1 
28 1 2 0.01 -1.112980 2.249890 4.495430 # C2 
29 1 7 0.06 -1.259400 1.415490 3.801780 # H2 
30 1 7 0.06 -1.667330 3.117550 4.111710 # H2 
31 1 8 -0.76 0.584880 -0.577630 0.347670 # N2 
32 1 5 0.64 0.518150 0.542890 -0.116780 # C7 
33 1 9 -0.76 0.405840 1.728910 -0.741620 # N3 
34 1 5 0.64 -0.115420 2.696660 0.037530 # C7 
35 1 8 -0.76 -0.617170 3.609260 0.662210 # N2 

 Bonds

1 9 1 4
2 9 2 4
3 9 3 4
4 7 4 7
5 8 5 7
6 8 6 7
7 5 7 10
8 6 8 10
9 6 9 10
10 1 10 13
11 2 11 13
12 2 12 13
13 3 13 14
14 3 14 21
15 3 14 25
16 3 14 18
17 4 15 28
18 6 15 17
19 1 15 25
20 6 15 16
21 1 18 28
22 2 18 19
23 2 18 20
24 2 21 23
25 2 21 22
26 2 21 24
27 2 25 27
28 2 25 26
29 6 28 30
30 6 28 29
31 10 31 32
32 11 32 33
33 11 33 34
34 10 34 35

 Angles

1 18 1 4 2
2 18 1 4 3
3 11 1 4 7
4 18 2 4 3
5 11 2 4 7
6 11 3 4 7
7 12 4 7 5
8 12 4 7 6
9 8 4 7 10
10 17 5 7 6
11 9 5 7 10
12 9 6 7 10
13 10 7 10 8
14 10 7 10 9
15 2 7 10 13
16 16 8 10 9
17 3 8 10 13
18 3 9 10 13
19 5 10 13 11
20 5 10 13 12
21 6 10 13 14
22 14 11 13 12
23 15 11 13 14
24 15 12 13 14
25 4 13 14 21
26 4 13 14 25
27 4 13 14 18
28 4 21 14 25
29 4 18 14 21
30 4 18 14 25
31 7 17 15 28
32 1 25 15 28
33 7 16 15 28
34 3 17 15 25
35 16 16 15 17
36 3 16 15 25
37 6 14 18 28
38 15 14 18 19
39 15 14 18 20
40 5 19 18 28
41 5 20 18 28
42 14 19 18 20
43 15 14 21 23
44 15 14 21 22
45 15 14 21 24
46 14 22 21 23
47 14 23 21 24
48 14 22 21 24
49 6 14 25 15
50 15 14 25 27
51 15 14 25 26
52 5 15 25 27
53 5 15 25 26
54 14 26 25 27
55 1 15 28 18
56 7 15 28 30
57 7 15 28 29
58 3 18 28 30
59 3 18 28 29
60 16 29 28 30
61 19 31 32 33
62 13 32 33 34
63 19 33 34 35

 Dihedrals

1 14 1 4 7 5
2 14 1 4 7 6
3 6 1 4 7 10
4 14 2 4 7 5
5 14 2 4 7 6
6 6 2 4 7 10
7 14 3 4 7 5
8 14 3 4 7 6
9 6 3 4 7 10
10 12 4 7 10 8
11 12 4 7 10 9
12 3 4 7 10 13
13 13 5 7 10 8
14 13 5 7 10 9
15 4 5 7 10 13
16 13 6 7 10 8
17 13 6 7 10 9
18 4 6 7 10 13
19 8 7 10 13 11
20 8 7 10 13 12
21 17 7 10 13 14
22 9 8 10 13 11
23 9 8 10 13 12
24 18 8 10 13 14
25 9 9 10 13 11
26 9 9 10 13 12
27 18 9 10 13 14
28 5 10 13 14 21
29 5 10 13 14 25
30 5 10 13 14 18
31 10 11 13 14 21
32 10 11 13 14 25
33 10 11 13 14 18
34 10 12 13 14 21
35 10 12 13 14 25
36 10 12 13 14 18
37 10 13 14 21 23
38 10 13 14 21 22
39 10 13 14 21 24
40 10 25 14 21 23
41 10 25 14 21 22
42 10 25 14 21 24
43 10 18 14 21 23
44 10 18 14 21 22
45 10 18 14 21 24
46 5 13 14 25 15
47 10 13 14 25 27
48 10 13 14 25 26
49 5 21 14 25 15
50 10 21 14 25 27
51 10 21 14 25 26
52 5 18 14 25 15
53 10 18 14 25 27
54 10 18 14 25 26
55 5 13 14 18 28
56 10 13 14 18 19
57 10 13 14 18 20
58 5 21 14 18 28
59 10 21 14 18 19
60 10 21 14 18 20
61 5 25 14 18 28
62 10 25 14 18 19
63 10 25 14 18 20
64 2 17 15 28 18
65 11 17 15 28 30
66 11 17 15 28 29
67 1 25 15 28 18
68 2 25 15 28 30
69 2 25 15 28 29
70 2 16 15 28 18
71 11 16 15 28 30
72 11 16 15 28 29
73 16 28 15 25 14
74 7 28 15 25 27
75 7 28 15 25 26
76 18 17 15 25 14
77 9 17 15 25 27
78 9 17 15 25 26
79 18 16 15 25 14
80 9 16 15 25 27
81 9 16 15 25 26
82 16 14 18 28 15
83 18 14 18 28 30
84 18 14 18 28 29
85 7 19 18 28 15
86 9 19 18 28 30
87 9 19 18 28 29
88 7 20 18 28 15
89 9 20 18 28 30
90 9 20 18 28 29
91 15 31 32 33 34
92 15 32 33 34 35

